LAMMPS UA chain data file

       19519  atoms
       13012  bonds
        6506  angles
           0  dihedrals
           0  impropers

           3  atom types
           1  bond types
           1  angle types
           0  dihedral types
           0  improper types

  -30.000000     30.000000 xlo xhi
  -30.000000     30.000000 ylo yhi
  -30.000000     30.000000 zlo zhi

Masses

  1   15.999
  2    1.008
  3   40.000

Atoms

         1       1       1    -0.83400    -12.4048    7.5237  -25.5064     0   0   0
         2       1       2     0.41700    -13.0126    8.1876  -25.1810     0   0   0
         3       1       2     0.41700    -12.9435    6.7408  -25.6214     0   0   0
         4       2       1    -0.83400     18.6062  -10.1597   29.5146     0   0   0
         5       2       2     0.41700     17.7919  -10.2634   30.0070     0   0   0
         6       2       2     0.41700     19.2966  -10.3496   30.1498     0   0   0
         7       3       1    -0.83400      7.4027  -19.5541  -16.2136     0   0   0
         8       3       2     0.41700      7.9711  -19.7083  -15.4590     0   0   0
         9       3       2     0.41700      7.8640  -18.8936  -16.7305     0   0   0
        10       4       1    -0.83400    -11.5104  -12.5055   10.5894     0   0   0
        11       4       2     0.41700    -11.8038  -11.9633    9.8572     0   0   0
        12       4       2     0.41700    -10.6333  -12.1804   10.7925     0   0   0
        13       5       1    -0.83400      9.2397   25.4171  -27.5834     0   0   0
        14       5       2     0.41700      9.2007   25.0499  -28.4665     0   0   0
        15       5       2     0.41700      8.7846   26.2564  -27.6522     0   0   0
        16       6       1    -0.83400    -24.0386   25.0549  -18.6118     0   0   0
        17       6       2     0.41700    -24.4244   25.6380  -19.2655     0   0   0
        18       6       2     0.41700    -24.3218   24.1791  -18.8745     0   0   0
        19       7       1    -0.83400    -30.1870   -2.3058  -15.1951     0   0   0
        20       7       2     0.41700    -29.2302   -2.2796  -15.1886     0   0   0
        21       7       2     0.41700    -30.4484   -1.6964  -14.5048     0   0   0
        22       8       1    -0.83400    -21.4346   25.4922  -18.9399     0   0   0
        23       8       2     0.41700    -21.2320   25.7470  -19.8400     0   0   0
        24       8       2     0.41700    -22.3872   25.3997  -18.9253     0   0   0
        25       9       1    -0.83400     14.1149   -8.6426   -4.5577     0   0   0
        26       9       2     0.41700     13.3342   -8.1834   -4.8676     0   0   0
        27       9       2     0.41700     14.1012   -9.4795   -5.0219     0   0   0
        28      10       1    -0.83400    -19.9420  -18.4991  -24.3963     0   0   0
        29      10       2     0.41700    -19.9183  -19.4372  -24.2072     0   0   0
        30      10       2     0.41700    -19.0398  -18.2058  -24.2690     0   0   0
        31      11       1    -0.83400      5.4467   22.5016   -0.2442     0   0   0
        32      11       2     0.41700      5.1168   23.3015   -0.6534     0   0   0
        33      11       2     0.41700      6.3084   22.7434    0.0953     0   0   0
        34      12       1    -0.83400     -7.3612   25.8408   15.6762     0   0   0
        35      12       2     0.41700     -7.2949   26.4130   16.4406     0   0   0
        36      12       2     0.41700     -6.5028   25.9002   15.2568     0   0   0
        37      13       1    -0.83400    -27.5309    9.2339  -24.1983     0   0   0
        38      13       2     0.41700    -27.6463    8.8067  -23.3495     0   0   0
        39      13       2     0.41700    -26.8161    9.8551  -24.0591     0   0   0
        40      14       1    -0.83400    -22.7386  -16.8180   26.4716     0   0   0
        41      14       2     0.41700    -23.6444  -17.0738   26.6457     0   0   0
        42      14       2     0.41700    -22.6223  -16.9699   25.5338     0   0   0
        43      15       1    -0.83400     16.6907   11.7498   -5.4078     0   0   0
        44      15       2     0.41700     16.1835   12.4823   -5.7577     0   0   0
        45      15       2     0.41700     16.9401   12.0296   -4.5270     0   0   0
        46      16       1    -0.83400     26.7342    6.4502  -28.0246     0   0   0
        47      16       2     0.41700     26.7361    6.7489  -28.9340     0   0   0
        48      16       2     0.41700     25.8298    6.5694  -27.7348     0   0   0
        49      17       1    -0.83400      0.9479  -17.9190  -29.8275     0   0   0
        50      17       2     0.41700      0.1815  -17.4440  -30.1487     0   0   0
        51      17       2     0.41700      0.5857  -18.6232  -29.2897     0   0   0
        52      18       1    -0.83400     28.4608  -10.5251    0.8594     0   0   0
        53      18       2     0.41700     28.9700  -11.3355    0.8463     0   0   0
        54      18       2     0.41700     28.7118  -10.0710    0.0550     0   0   0
        55      19       1    -0.83400    -25.9662  -22.1685   -7.3264     0   0   0
        56      19       2     0.41700    -25.7875  -21.5412   -6.6259     0   0   0
        57      19       2     0.41700    -25.2485  -22.7995   -7.2724     0   0   0
        58      20       1    -0.83400     -9.5254  -13.4868   21.7105     0   0   0
        59      20       2     0.41700     -9.3727  -14.4155   21.5362     0   0   0
        60      20       2     0.41700     -9.1804  -13.0379   20.9387     0   0   0
        61      21       1    -0.83400      2.3016  -11.1090    7.5991     0   0   0
        62      21       2     0.41700      1.7645  -11.2445    6.8184     0   0   0
        63      21       2     0.41700      1.7387  -11.3741    8.3265     0   0   0
        64      22       1    -0.83400     21.9086  -12.8347   21.3657     0   0   0
        65      22       2     0.41700     21.6000  -12.4761   20.5337     0   0   0
        66      22       2     0.41700     22.5985  -12.2329   21.6453     0   0   0
        67      23       1    -0.83400     12.0337   21.0100   23.7281     0   0   0
        68      23       2     0.41700     12.5952   20.4377   23.2052     0   0   0
        69      23       2     0.41700     11.2288   20.5073   23.8533     0   0   0
        70      24       1    -0.83400    -15.6480   -5.5265    8.2294     0   0   0
        71      24       2     0.41700    -15.9512   -4.6272    8.3543     0   0   0
        72      24       2     0.41700    -16.1656   -5.8544    7.4941     0   0   0
        73      25       1    -0.83400     -0.0532    9.7066  -15.8289     0   0   0
        74      25       2     0.41700      0.2869   10.5580  -16.1040     0   0   0
        75      25       2     0.41700     -0.3069    9.8335  -14.9147     0   0   0
        76      26       1    -0.83400      6.8220   -6.6088   -9.1094     0   0   0
        77      26       2     0.41700      5.9870   -6.4905   -9.5622     0   0   0
        78      26       2     0.41700      7.2670   -5.7664   -9.2025     0   0   0
        79      27       1    -0.83400    -20.8575  -19.3762    4.9186     0   0   0
        80      27       2     0.41700    -21.7671  -19.4188    5.2135     0   0   0
        81      27       2     0.41700    -20.4167  -18.8389    5.5767     0   0   0
        82      28       1    -0.83400    -10.4518   13.4850    5.1948     0   0   0
        83      28       2     0.41700    -10.8902   12.6922    5.5037     0   0   0
        84      28       2     0.41700    -10.2915   13.3238    4.2649     0   0   0
        85      29       1    -0.83400     26.2139   27.4745  -19.1978     0   0   0
        86      29       2     0.41700     25.7104   26.6757  -19.0405     0   0   0
        87      29       2     0.41700     25.8480   28.1132  -18.5859     0   0   0
        88      30       1    -0.83400      6.8652  -18.9017   15.2901     0   0   0
        89      30       2     0.41700      7.0558  -19.0185   14.3594     0   0   0
        90      30       2     0.41700      5.9181  -18.7676   15.3262     0   0   0
        91      31       1    -0.83400     -1.6495   -0.9366  -26.1327     0   0   0
        92      31       2     0.41700     -1.9496   -0.3384  -26.8171     0   0   0
        93      31       2     0.41700     -2.2753   -0.8172  -25.4183     0   0   0
        94      32       1    -0.83400    -21.5511   30.1573   28.2223     0   0   0
        95      32       2     0.41700    -20.8823   29.9749   28.8823     0   0   0
        96      32       2     0.41700    -21.5100   29.4097   27.6259     0   0   0
        97      33       1    -0.83400    -30.2072   -0.2331    4.3401     0   0   0
        98      33       2     0.41700    -29.3683   -0.4893    4.7235     0   0   0
        99      33       2     0.41700    -30.4156    0.6035    4.7559     0   0   0
       100      34       1    -0.83400    -20.8352  -23.4134    8.2272     0   0   0
       101      34       2     0.41700    -21.5124  -23.5727    8.8848     0   0   0
       102      34       2     0.41700    -21.1502  -22.6537    7.7375     0   0   0
       103      35       1    -0.83400     22.9690  -15.3387   12.2831     0   0   0
       104      35       2     0.41700     22.7098  -16.0510   12.8676     0   0   0
       105      35       2     0.41700     22.4076  -14.6054   12.5347     0   0   0
       106      36       1    -0.83400    -20.0387   -9.8713   -9.7161     0   0   0
       107      36       2     0.41700    -19.8503   -8.9371   -9.6262     0   0   0
       108      36       2     0.41700    -20.9676   -9.9079   -9.9445     0   0   0
       109      37       1    -0.83400    -14.2137   -3.5655  -21.6699     0   0   0
       110      37       2     0.41700    -13.9297   -3.0125  -22.3977     0   0   0
       111      37       2     0.41700    -14.2343   -2.9771  -20.9152     0   0   0
       112      38       1    -0.83400     18.1375  -25.9729   17.9699     0   0   0
       113      38       2     0.41700     17.9059  -26.6566   18.5985     0   0   0
       114      38       2     0.41700     18.8286  -25.4724   18.4034     0   0   0
       115      39       1    -0.83400     18.8799   25.9306    9.9622     0   0   0
       116      39       2     0.41700     18.2289   26.2226    9.3241     0   0   0
       117      39       2     0.41700     18.5087   26.1712   10.8110     0   0   0
       118      40       1    -0.83400    -26.8452    7.5554   11.7441     0   0   0
       119      40       2     0.41700    -26.4418    7.3660   12.5912     0   0   0
       120      40       2     0.41700    -26.1599    7.3638   11.1038     0   0   0
       121      41       1    -0.83400     16.4332   13.6114   28.4807     0   0   0
       122      41       2     0.41700     16.9465   13.2015   29.1769     0   0   0
       123      41       2     0.41700     16.8684   14.4493   28.3233     0   0   0
       124      42       1    -0.83400     23.8110  -29.1122   10.4086     0   0   0
       125      42       2     0.41700     24.7004  -28.8860   10.1365     0   0   0
       126      42       2     0.41700     23.6906  -28.6539   11.2403     0   0   0
       127      43       1    -0.83400     26.8104  -22.4008  -12.8890     0   0   0
       128      43       2     0.41700     26.4418  -23.2738  -12.7541     0   0   0
       129      43       2     0.41700     26.0990  -21.8021  -12.6617     0   0   0
       130      44       1    -0.83400     28.8003  -26.5118   22.9452     0   0   0
       131      44       2     0.41700     29.4907  -27.0596   22.5717     0   0   0
       132      44       2     0.41700     28.8489  -26.6737   23.8874     0   0   0
       133      45       1    -0.83400      5.3916  -25.1175    3.3429     0   0   0
       134      45       2     0.41700      5.6526  -25.9394    2.9275     0   0   0
       135      45       2     0.41700      4.6881  -24.7809    2.7880     0   0   0
       136      46       1    -0.83400     11.7565    4.8926  -18.3396     0   0   0
       137      46       2     0.41700     11.9129    4.0955  -17.8332     0   0   0
       138      46       2     0.41700     10.8441    5.1174  -18.1575     0   0   0
       139      47       1    -0.83400     -6.9289    0.1031  -11.6000     0   0   0
       140      47       2     0.41700     -7.4977    0.6979  -11.1112     0   0   0
       141      47       2     0.41700     -7.3158    0.0657  -12.4747     0   0   0
       142      48       1    -0.83400    -28.5160    8.7861    9.7791     0   0   0
       143      48       2     0.41700    -27.9755    8.9591   10.5499     0   0   0
       144      48       2     0.41700    -28.1869    7.9551    9.4367     0   0   0
       145      49       1    -0.83400     -7.0846  -21.6471   19.3769     0   0   0
       146      49       2     0.41700     -6.2918  -21.9480   19.8209     0   0   0
       147      49       2     0.41700     -7.5585  -22.4504   19.1612     0   0   0
       148      50       1    -0.83400     -7.9092   -6.6332  -12.6559     0   0   0
       149      50       2     0.41700     -7.4340   -5.8156  -12.5079     0   0   0
       150      50       2     0.41700     -8.7827   -6.4710  -12.2998     0   0   0
       151      51       1    -0.83400     28.6728   15.3027   -1.0521     0   0   0
       152      51       2     0.41700     27.8380   15.0125   -0.6846     0   0   0
       153      51       2     0.41700     28.7134   16.2368   -0.8474     0   0   0
       154      52       1    -0.83400    -11.2900  -21.0180  -22.7104     0   0   0
       155      52       2     0.41700    -11.2634  -21.9451  -22.9472     0   0   0
       156      52       2     0.41700    -10.8557  -20.5720  -23.4375     0   0   0
       157      53       1    -0.83400    -12.5395  -28.2686  -13.0786     0   0   0
       158      53       2     0.41700    -11.9951  -28.9222  -12.6396     0   0   0
       159      53       2     0.41700    -12.7111  -27.6087  -12.4068     0   0   0
       160      54       1    -0.83400     19.8977   10.5941   -3.5488     0   0   0
       161      54       2     0.41700     20.8176   10.6011   -3.2843     0   0   0
       162      54       2     0.41700     19.5723    9.7406   -3.2627     0   0   0
       163      55       1    -0.83400    -28.8783    5.6899  -23.1540     0   0   0
       164      55       2     0.41700    -27.9829    5.3966  -22.9855     0   0   0
       165      55       2     0.41700    -28.9376    6.5412  -22.7203     0   0   0
       166      56       1    -0.83400     14.3424  -10.0394   22.7635     0   0   0
       167      56       2     0.41700     14.8303  -10.4764   22.0655     0   0   0
       168      56       2     0.41700     13.5198  -10.5254   22.8219     0   0   0
       169      57       1    -0.83400    -22.9248    1.0629   15.2640     0   0   0
       170      57       2     0.41700    -22.7059    0.3653   15.8818     0   0   0
       171      57       2     0.41700    -23.8752    1.0063   15.1651     0   0   0
       172      58       1    -0.83400      8.3774   14.7039    4.8884     0   0   0
       173      58       2     0.41700      8.9385   13.9732    5.1480     0   0   0
       174      58       2     0.41700      8.9872   15.4068    4.6642     0   0   0
       175      59       1    -0.83400    -10.7741  -21.7254   25.7909     0   0   0
       176      59       2     0.41700    -10.1770  -21.2980   25.1768     0   0   0
       177      59       2     0.41700    -11.5841  -21.8438   25.2949     0   0   0
       178      60       1    -0.83400    -12.1757   11.3396   -2.6200     0   0   0
       179      60       2     0.41700    -12.7395   10.8091   -3.1829     0   0   0
       180      60       2     0.41700    -11.7181   10.7033   -2.0705     0   0   0
       181      61       1    -0.83400    -11.6479   -7.9882  -14.3565     0   0   0
       182      61       2     0.41700    -11.1309   -8.0865  -13.5569     0   0   0
       183      61       2     0.41700    -12.4398   -7.5297  -14.0753     0   0   0
       184      62       1    -0.83400      3.5379   15.0602   10.0385     0   0   0
       185      62       2     0.41700      3.2573   15.8580    9.5903     0   0   0
       186      62       2     0.41700      2.8214   14.4412    9.8978     0   0   0
       187      63       1    -0.83400    -26.3712   -8.1887   18.3917     0   0   0
       188      63       2     0.41700    -27.1673   -8.5032   17.9634     0   0   0
       189      63       2     0.41700    -25.8721   -7.7680   17.6915     0   0   0
       190      64       1    -0.83400    -17.9670   -9.7554  -22.7420     0   0   0
       191      64       2     0.41700    -18.6207   -9.0562  -22.7339     0   0   0
       192      64       2     0.41700    -18.4797  -10.5626  -22.7838     0   0   0
       193      65       1    -0.83400    -24.8457  -24.9958  -23.1854     0   0   0
       194      65       2     0.41700    -24.2019  -24.3998  -23.5681     0   0   0
       195      65       2     0.41700    -25.5437  -24.4231  -22.8674     0   0   0
       196      66       1    -0.83400    -24.7411   -6.7230   10.6314     0   0   0
       197      66       2     0.41700    -24.3962   -7.3568   11.2603     0   0   0
       198      66       2     0.41700    -25.3302   -7.2330   10.0753     0   0   0
       199      67       1    -0.83400     21.2709   24.5484   -3.5670     0   0   0
       200      67       2     0.41700     21.9255   23.8631   -3.7013     0   0   0
       201      67       2     0.41700     20.6955   24.2004   -2.8857     0   0   0
       202      68       1    -0.83400     14.2714  -18.0114   29.3449     0   0   0
       203      68       2     0.41700     14.4550  -18.2638   30.2498     0   0   0
       204      68       2     0.41700     13.4418  -17.5362   29.3919     0   0   0
       205      69       1    -0.83400     24.0027  -10.9056   22.1388     0   0   0
       206      69       2     0.41700     23.9782  -10.3498   22.9177     0   0   0
       207      69       2     0.41700     24.8958  -11.2492   22.1172     0   0   0
       208      70       1    -0.83400    -13.4590   -8.5000   -6.4355     0   0   0
       209      70       2     0.41700    -14.3477   -8.3592   -6.7619     0   0   0
       210      70       2     0.41700    -13.1762   -9.3137   -6.8527     0   0   0
       211      71       1    -0.83400     16.4358   -3.9345   15.2613     0   0   0
       212      71       2     0.41700     16.6417   -4.7866   15.6457     0   0   0
       213      71       2     0.41700     16.5467   -3.3134   15.9812     0   0   0
       214      72       1    -0.83400     26.7557   16.4595   13.6452     0   0   0
       215      72       2     0.41700     25.9371   16.3399   13.1636     0   0   0
       216      72       2     0.41700     26.5545   16.1718   14.5357     0   0   0
       217      73       1    -0.83400    -24.1482   27.3591   15.4795     0   0   0
       218      73       2     0.41700    -23.2779   27.6816   15.2453     0   0   0
       219      73       2     0.41700    -24.7390   28.0778   15.2545     0   0   0
       220      74       1    -0.83400      2.1898   22.0582  -19.9963     0   0   0
       221      74       2     0.41700      3.0138   21.8452  -19.5583     0   0   0
       222      74       2     0.41700      1.5117   21.7530  -19.3935     0   0   0
       223      75       1    -0.83400     10.4134  -17.0722   18.4232     0   0   0
       224      75       2     0.41700      9.8045  -16.9927   17.6889     0   0   0
       225      75       2     0.41700      9.9368  -17.5851   19.0758     0   0   0
       226      76       1    -0.83400     11.8985   20.5499    2.5371     0   0   0
       227      76       2     0.41700     11.9877   19.6418    2.2478     0   0   0
       228      76       2     0.41700     12.3003   20.5656    3.4057     0   0   0
       229      77       1    -0.83400    -21.7778    7.8367  -22.8897     0   0   0
       230      77       2     0.41700    -21.9675    7.1091  -23.4821     0   0   0
       231      77       2     0.41700    -21.6802    7.4271  -22.0301     0   0   0
       232      78       1    -0.83400     15.9541  -24.8135    2.2831     0   0   0
       233      78       2     0.41700     16.0777  -24.2738    3.0639     0   0   0
       234      78       2     0.41700     15.1409  -24.4909    1.8946     0   0   0
       235      79       1    -0.83400     -7.9837  -26.3955   22.9206     0   0   0
       236      79       2     0.41700     -8.4511  -27.1249   23.3277     0   0   0
       237      79       2     0.41700     -8.1703  -25.6457   23.4856     0   0   0
       238      80       1    -0.83400    -22.0386  -23.5910  -11.6304     0   0   0
       239      80       2     0.41700    -22.5663  -22.7991  -11.7338     0   0   0
       240      80       2     0.41700    -22.2373  -23.8980  -10.7458     0   0   0
       241      81       1    -0.83400      0.1847   19.0815  -22.6199     0   0   0
       242      81       2     0.41700      0.3092   18.3595  -23.2360     0   0   0
       243      81       2     0.41700      0.7861   19.7617  -22.9227     0   0   0
       244      82       1    -0.83400     20.8370   -9.0609  -24.1329     0   0   0
       245      82       2     0.41700     20.0482   -8.6759  -24.5146     0   0   0
       246      82       2     0.41700     20.9653   -8.5826  -23.3138     0   0   0
       247      83       1    -0.83400      9.2554  -26.6794   19.3993     0   0   0
       248      83       2     0.41700      9.6581  -27.0319   20.1929     0   0   0
       249      83       2     0.41700      9.7936  -25.9207   19.1737     0   0   0
       250      84       1    -0.83400     27.5110   27.5967   -1.7125     0   0   0
       251      84       2     0.41700     28.0163   28.2753   -1.2647     0   0   0
       252      84       2     0.41700     28.1630   27.0970   -2.2039     0   0   0
       253      85       1    -0.83400    -10.6108  -12.4200    6.6364     0   0   0
       254      85       2     0.41700     -9.9027  -11.8752    6.9802     0   0   0
       255      85       2     0.41700    -10.2503  -13.3067    6.6309     0   0   0
       256      86       1    -0.83400     -0.5426    9.6198  -20.5603     0   0   0
       257      86       2     0.41700     -0.8033    9.2595  -19.7126     0   0   0
       258      86       2     0.41700     -1.3440   10.0060  -20.9136     0   0   0
       259      87       1    -0.83400      9.3802    6.2152  -25.3172     0   0   0
       260      87       2     0.41700      9.8361    6.2534  -26.1580     0   0   0
       261      87       2     0.41700     10.0663    6.3586  -24.6654     0   0   0
       262      88       1    -0.83400    -22.0658   15.8616   16.7747     0   0   0
       263      88       2     0.41700    -22.7407   15.8997   16.0970     0   0   0
       264      88       2     0.41700    -21.4563   16.5634   16.5461     0   0   0
       265      89       1    -0.83400    -23.1672  -21.6570    9.3058     0   0   0
       266      89       2     0.41700    -22.4684  -21.0895    9.6311     0   0   0
       267      89       2     0.41700    -23.9202  -21.0752    9.2022     0   0   0
       268      90       1    -0.83400     -4.7414   -0.1190   18.4524     0   0   0
       269      90       2     0.41700     -4.8501    0.8304   18.3960     0   0   0
       270      90       2     0.41700     -4.0292   -0.2421   19.0801     0   0   0
       271      91       1    -0.83400    -10.9943   -1.1370  -27.3482     0   0   0
       272      91       2     0.41700    -11.3984   -0.2694  -27.3337     0   0   0
       273      91       2     0.41700    -10.2140   -1.0475  -26.8011     0   0   0
       274      92       1    -0.83400     12.7765  -22.1680  -20.9596     0   0   0
       275      92       2     0.41700     13.5927  -22.2251  -20.4627     0   0   0
       276      92       2     0.41700     12.7383  -22.9872  -21.4532     0   0   0
       277      93       1    -0.83400     25.7109    6.9490  -24.1679     0   0   0
       278      93       2     0.41700     24.9006    7.3391  -24.4956     0   0   0
       279      93       2     0.41700     26.2171    7.6905  -23.8360     0   0   0
       280      94       1    -0.83400     10.0761   -3.0968  -12.2525     0   0   0
       281      94       2     0.41700     10.1196   -2.5343  -11.4792     0   0   0
       282      94       2     0.41700     10.6579   -3.8293  -12.0494     0   0   0
       283      95       1    -0.83400     15.6400    6.5877   -8.7243     0   0   0
       284      95       2     0.41700     14.7805    6.8065   -8.3643     0   0   0
       285      95       2     0.41700     16.1880    7.3436   -8.5134     0   0   0
       286      96       1    -0.83400    -20.0405   12.6541  -21.7271     0   0   0
       287      96       2     0.41700    -20.8291   12.5710  -21.1910     0   0   0
       288      96       2     0.41700    -20.3646   12.6886  -22.6271     0   0   0
       289      97       1    -0.83400     16.7942  -24.8787   15.8127     0   0   0
       290      97       2     0.41700     17.3275  -25.1824   16.5473     0   0   0
       291      97       2     0.41700     16.0490  -24.4394   16.2226     0   0   0
       292      98       1    -0.83400     28.0773   -2.0576   -1.3975     0   0   0
       293      98       2     0.41700     27.3883   -1.9002   -2.0430     0   0   0
       294      98       2     0.41700     28.4241   -1.1876   -1.1997     0   0   0
       295      99       1    -0.83400    -23.0841    6.3203  -20.4298     0   0   0
       296      99       2     0.41700    -22.8815    5.6069  -19.8247     0   0   0
       297      99       2     0.41700    -23.1945    5.8912  -21.2783     0   0   0
       298     100       1    -0.83400     24.1602   19.5406  -26.0235     0   0   0
       299     100       2     0.41700     25.1019   19.4240  -26.1492     0   0   0
       300     100       2     0.41700     23.8069   18.6510  -26.0179     0   0   0
       301     101       1    -0.83400     -7.9000  -15.2843   15.5823     0   0   0
       302     101       2     0.41700     -8.4045  -14.9113   14.8594     0   0   0
       303     101       2     0.41700     -8.5604  -15.6323   16.1815     0   0   0
       304     102       1    -0.83400      1.8219   27.6761    9.5092     0   0   0
       305     102       2     0.41700      1.4163   28.2838   10.1275     0   0   0
       306     102       2     0.41700      2.2405   27.0156   10.0613     0   0   0
       307     103       1    -0.83400    -19.2760  -13.4505   11.4072     0   0   0
       308     103       2     0.41700    -19.1108  -12.9120   10.6333     0   0   0
       309     103       2     0.41700    -20.1340  -13.8436   11.2473     0   0   0
       310     104       1    -0.83400     29.8572   16.5876   -9.1355     0   0   0
       311     104       2     0.41700     29.7452   16.4158  -10.0705     0   0   0
       312     104       2     0.41700     28.9684   16.5720   -8.7804     0   0   0
       313     105       1    -0.83400      6.9944  -13.6574    8.3960     0   0   0
       314     105       2     0.41700      6.9029  -14.5957    8.5621     0   0   0
       315     105       2     0.41700      6.5214  -13.2391    9.1153     0   0   0
       316     106       1    -0.83400      7.0716  -21.1774   21.3211     0   0   0
       317     106       2     0.41700      7.7864  -21.7609   21.0663     0   0   0
       318     106       2     0.41700      7.1047  -20.4646   20.6832     0   0   0
       319     107       1    -0.83400     11.8252   24.7473    9.1238     0   0   0
       320     107       2     0.41700     11.6788   24.1610    9.8662     0   0   0
       321     107       2     0.41700     10.9485   24.9294    8.7854     0   0   0
       322     108       1    -0.83400     19.5952   23.1154   -5.7705     0   0   0
       323     108       2     0.41700     20.3303   23.4384   -6.2915     0   0   0
       324     108       2     0.41700     18.8597   23.0908   -6.3826     0   0   0
       325     109       1    -0.83400     22.7430   24.7834   23.7827     0   0   0
       326     109       2     0.41700     22.4606   24.1955   23.0821     0   0   0
       327     109       2     0.41700     22.0678   25.4612   23.8141     0   0   0
       328     110       1    -0.83400     27.3145    8.4029   15.6807     0   0   0
       329     110       2     0.41700     27.7025    8.6860   16.5087     0   0   0
       330     110       2     0.41700     26.9277    7.5494   15.8764     0   0   0
       331     111       1    -0.83400    -13.4871   -9.7485  -25.0090     0   0   0
       332     111       2     0.41700    -13.4869   -8.8606  -25.3666     0   0   0
       333     111       2     0.41700    -13.8625  -10.2875  -25.7052     0   0   0
       334     112       1    -0.83400     26.8762  -18.6824   -6.1620     0   0   0
       335     112       2     0.41700     27.2596  -17.8182   -6.0124     0   0   0
       336     112       2     0.41700     25.9454  -18.5106   -6.3046     0   0   0
       337     113       1    -0.83400    -25.5984   -3.8903   24.2685     0   0   0
       338     113       2     0.41700    -26.2945   -4.5413   24.1808     0   0   0
       339     113       2     0.41700    -24.9414   -4.3144   24.8206     0   0   0
       340     114       1    -0.83400    -21.0257   21.1078   -2.5647     0   0   0
       341     114       2     0.41700    -20.9319   20.1605   -2.6650     0   0   0
       342     114       2     0.41700    -21.3071   21.2264   -1.6575     0   0   0
       343     115       1    -0.83400    -26.7361   18.3500   -5.4064     0   0   0
       344     115       2     0.41700    -27.2158   18.3404   -6.2347     0   0   0
       345     115       2     0.41700    -27.3916   18.1231   -4.7468     0   0   0
       346     116       1    -0.83400     18.5855    8.9012   16.9252     0   0   0
       347     116       2     0.41700     18.2548    9.5862   16.3440     0   0   0